   2   2   1   0
  0.9938375E+01  0.3040559E-09  0.3040559E-09  0.3040559E-09  0.5000000E-15
  1.000000000000000E-004
  CAR 
 fcc Si                                  
     34.77648834     -4.56629858  301     15.57916462      1.00000000
     -4.566  0.0000E+00  0.0000E+00
     -4.435  0.0000E+00  0.0000E+00
     -4.304  0.0000E+00  0.0000E+00
     -4.173  0.0000E+00  0.0000E+00
     -4.042  0.0000E+00  0.0000E+00
     -3.911  0.0000E+00  0.0000E+00
     -3.779  0.0000E+00  0.0000E+00
     -3.648  0.0000E+00  0.0000E+00
     -3.517  0.0000E+00  0.0000E+00
     -3.386  0.0000E+00  0.0000E+00
     -3.255  0.0000E+00  0.0000E+00
     -3.124  0.0000E+00  0.0000E+00
     -2.993  0.0000E+00  0.0000E+00
     -2.861  0.0000E+00  0.0000E+00
     -2.730  0.0000E+00  0.0000E+00
     -2.599  0.0000E+00  0.0000E+00
     -2.468  0.3899E-01  0.2192E-02
     -2.337  0.6497E-01  0.9374E-02
     -2.206  0.8511E-01  0.1935E-01
     -2.075  0.9891E-01  0.3138E-01
     -1.943  0.1129E+00  0.4540E-01
     -1.812  0.1237E+00  0.6090E-01
     -1.681  0.1363E+00  0.7794E-01
     -1.550  0.1447E+00  0.9638E-01
     -1.419  0.1543E+00  0.1160E+00
     -1.288  0.1645E+00  0.1369E+00
     -1.157  0.1719E+00  0.1589E+00
     -1.025  0.1797E+00  0.1820E+00
     -0.894  0.1883E+00  0.2061E+00
     -0.763  0.1959E+00  0.2313E+00
     -0.632  0.2024E+00  0.2574E+00
     -0.501  0.2094E+00  0.2844E+00
     -0.370  0.2169E+00  0.3124E+00
     -0.239  0.2235E+00  0.3413E+00
     -0.107  0.2294E+00  0.3710E+00
      0.024  0.2357E+00  0.4015E+00
      0.155  0.2423E+00  0.4328E+00
      0.286  0.2491E+00  0.4651E+00
      0.417  0.2544E+00  0.4981E+00
      0.548  0.2600E+00  0.5318E+00
      0.679  0.2658E+00  0.5663E+00
      0.811  0.2717E+00  0.6015E+00
      0.942  0.2779E+00  0.6375E+00
      1.073  0.2829E+00  0.6743E+00
      1.204  0.2880E+00  0.7118E+00
      1.335  0.2933E+00  0.7499E+00
      1.466  0.2987E+00  0.7887E+00
      1.597  0.3043E+00  0.8282E+00
      1.729  0.3095E+00  0.8685E+00
      1.860  0.3142E+00  0.9094E+00
      1.991  0.3191E+00  0.9509E+00
      2.122  0.3241E+00  0.9931E+00
      2.253  0.3292E+00  0.1036E+01
      2.384  0.3345E+00  0.1079E+01
      2.515  0.3401E+00  0.1124E+01
      2.647  0.3469E+00  0.1169E+01
      2.778  0.3596E+00  0.1215E+01
      2.909  0.3833E+00  0.1264E+01
      3.040  0.3660E+00  0.1314E+01
      3.171  0.3710E+00  0.1362E+01
      3.302  0.3558E+00  0.1411E+01
      3.433  0.3363E+00  0.1455E+01
      3.565  0.3472E+00  0.1500E+01
      3.696  0.3803E+00  0.1550E+01
      3.827  0.3787E+00  0.1600E+01
      3.958  0.3758E+00  0.1650E+01
      4.089  0.4085E+00  0.1701E+01
      4.220  0.4177E+00  0.1753E+01
      4.351  0.4083E+00  0.1807E+01
      4.483  0.4079E+00  0.1861E+01
      4.614  0.4256E+00  0.1915E+01
      4.745  0.4325E+00  0.1973E+01
      4.876  0.4245E+00  0.2029E+01
      5.007  0.4194E+00  0.2085E+01
      5.138  0.4188E+00  0.2140E+01
      5.269  0.4164E+00  0.2195E+01
      5.401  0.4198E+00  0.2250E+01
      5.532  0.4304E+00  0.2306E+01
      5.663  0.4101E+00  0.2361E+01
      5.794  0.4233E+00  0.2415E+01
      5.925  0.4499E+00  0.2472E+01
      6.056  0.4763E+00  0.2533E+01
      6.187  0.4984E+00  0.2597E+01
      6.319  0.4728E+00  0.2660E+01
      6.450  0.4707E+00  0.2722E+01
      6.581  0.4597E+00  0.2784E+01
      6.712  0.4759E+00  0.2845E+01
      6.843  0.4975E+00  0.2909E+01
      6.974  0.4654E+00  0.2972E+01
      7.105  0.4809E+00  0.3034E+01
      7.237  0.4847E+00  0.3097E+01
      7.368  0.5143E+00  0.3163E+01
      7.499  0.5084E+00  0.3230E+01
      7.630  0.5132E+00  0.3297E+01
      7.761  0.5201E+00  0.3365E+01
      7.892  0.5212E+00  0.3435E+01
      8.023  0.5068E+00  0.3502E+01
      8.155  0.5118E+00  0.3569E+01
      8.286  0.5264E+00  0.3637E+01
      8.417  0.5324E+00  0.3707E+01
      8.548  0.5355E+00  0.3776E+01
      8.679  0.5562E+00  0.3849E+01
      8.810  0.5569E+00  0.3921E+01
      8.941  0.5733E+00  0.3995E+01
      9.073  0.5644E+00  0.4070E+01
      9.204  0.5574E+00  0.4144E+01
      9.335  0.5564E+00  0.4217E+01
      9.466  0.5681E+00  0.4290E+01
      9.597  0.5904E+00  0.4366E+01
      9.728  0.5841E+00  0.4443E+01
      9.859  0.6087E+00  0.4521E+01
      9.991  0.6032E+00  0.4601E+01
     10.122  0.6183E+00  0.4681E+01
     10.253  0.6182E+00  0.4762E+01
     10.384  0.6210E+00  0.4843E+01
     10.515  0.6340E+00  0.4925E+01
     10.646  0.6586E+00  0.5010E+01
     10.777  0.6857E+00  0.5097E+01
     10.909  0.6949E+00  0.5188E+01
     11.040  0.7194E+00  0.5281E+01
     11.171  0.8020E+00  0.5378E+01
     11.302  0.7498E+00  0.5479E+01
     11.433  0.7366E+00  0.5576E+01
     11.564  0.7186E+00  0.5671E+01
     11.695  0.7132E+00  0.5765E+01
     11.827  0.6884E+00  0.5857E+01
     11.958  0.6686E+00  0.5946E+01
     12.089  0.6578E+00  0.6033E+01
     12.220  0.6429E+00  0.6118E+01
     12.351  0.6229E+00  0.6201E+01
     12.482  0.6061E+00  0.6282E+01
     12.613  0.5963E+00  0.6361E+01
     12.745  0.5893E+00  0.6438E+01
     12.876  0.5741E+00  0.6515E+01
     13.007  0.5539E+00  0.6589E+01
     13.138  0.5348E+00  0.6660E+01
     13.269  0.5193E+00  0.6729E+01
     13.400  0.5099E+00  0.6796E+01
     13.531  0.5033E+00  0.6863E+01
     13.663  0.5007E+00  0.6929E+01
     13.794  0.5024E+00  0.6994E+01
     13.925  0.5043E+00  0.7060E+01
     14.056  0.5113E+00  0.7127E+01
     14.187  0.5237E+00  0.7195E+01
     14.318  0.5339E+00  0.7264E+01
     14.449  0.5493E+00  0.7335E+01
     14.581  0.5657E+00  0.7408E+01
     14.712  0.5780E+00  0.7483E+01
     14.843  0.5839E+00  0.7560E+01
     14.974  0.5863E+00  0.7636E+01
     15.105  0.5925E+00  0.7713E+01
     15.236  0.5961E+00  0.7791E+01
     15.367  0.6045E+00  0.7870E+01
     15.499  0.6165E+00  0.7950E+01
     15.630  0.6240E+00  0.8031E+01
     15.761  0.6471E+00  0.8114E+01
     15.892  0.6810E+00  0.8202E+01
     16.023  0.7050E+00  0.8292E+01
     16.154  0.7452E+00  0.8387E+01
     16.285  0.7929E+00  0.8489E+01
     16.417  0.8460E+00  0.8596E+01
     16.548  0.9088E+00  0.8711E+01
     16.679  0.9533E+00  0.8834E+01
     16.810  0.9333E+00  0.8958E+01
     16.941  0.9237E+00  0.9082E+01
     17.072  0.8624E+00  0.9200E+01
     17.203  0.8314E+00  0.9311E+01
     17.335  0.7852E+00  0.9417E+01
     17.466  0.7741E+00  0.9519E+01
     17.597  0.8073E+00  0.9621E+01
     17.728  0.7643E+00  0.9727E+01
     17.859  0.7503E+00  0.9826E+01
     17.990  0.6996E+00  0.9920E+01
     18.121  0.6933E+00  0.1001E+02
     18.253  0.7764E+00  0.1010E+02
     18.384  0.7449E+00  0.1020E+02
     18.515  0.6863E+00  0.1030E+02
     18.646  0.6269E+00  0.1038E+02
     18.777  0.6435E+00  0.1047E+02
     18.908  0.6382E+00  0.1055E+02
     19.039  0.6926E+00  0.1064E+02
     19.171  0.6603E+00  0.1073E+02
     19.302  0.6885E+00  0.1081E+02
     19.433  0.7303E+00  0.1091E+02
     19.564  0.7555E+00  0.1100E+02
     19.695  0.7740E+00  0.1110E+02
     19.826  0.7560E+00  0.1120E+02
     19.957  0.7376E+00  0.1130E+02
     20.089  0.6889E+00  0.1140E+02
     20.220  0.7297E+00  0.1149E+02
     20.351  0.6382E+00  0.1158E+02
     20.482  0.5543E+00  0.1166E+02
     20.613  0.5373E+00  0.1173E+02
     20.744  0.5883E+00  0.1180E+02
     20.875  0.5726E+00  0.1188E+02
     21.007  0.7245E+00  0.1196E+02
     21.138  0.7103E+00  0.1206E+02
     21.269  0.7259E+00  0.1215E+02
     21.400  0.8119E+00  0.1225E+02
     21.531  0.7684E+00  0.1236E+02
     21.662  0.7560E+00  0.1246E+02
     21.793  0.7404E+00  0.1256E+02
     21.925  0.7455E+00  0.1265E+02
     22.056  0.7101E+00  0.1275E+02
     22.187  0.7963E+00  0.1284E+02
     22.318  0.7036E+00  0.1294E+02
     22.449  0.6898E+00  0.1303E+02
     22.580  0.6776E+00  0.1312E+02
     22.711  0.6712E+00  0.1321E+02
     22.843  0.6657E+00  0.1330E+02
     22.974  0.6953E+00  0.1339E+02
     23.105  0.6868E+00  0.1348E+02
     23.236  0.6842E+00  0.1357E+02
     23.367  0.6832E+00  0.1366E+02
     23.498  0.6899E+00  0.1375E+02
     23.629  0.6626E+00  0.1383E+02
     23.761  0.6795E+00  0.1392E+02
     23.892  0.6958E+00  0.1401E+02
     24.023  0.6555E+00  0.1410E+02
     24.154  0.6303E+00  0.1419E+02
     24.285  0.5970E+00  0.1427E+02
     24.416  0.5688E+00  0.1434E+02
     24.547  0.5510E+00  0.1442E+02
     24.679  0.5390E+00  0.1449E+02
     24.810  0.5252E+00  0.1456E+02
     24.941  0.5046E+00  0.1463E+02
     25.072  0.5034E+00  0.1469E+02
     25.203  0.5441E+00  0.1476E+02
     25.334  0.5269E+00  0.1483E+02
     25.465  0.4990E+00  0.1490E+02
     25.597  0.4760E+00  0.1496E+02
     25.728  0.4456E+00  0.1503E+02
     25.859  0.4141E+00  0.1508E+02
     25.990  0.3849E+00  0.1513E+02
     26.121  0.3643E+00  0.1518E+02
     26.252  0.3506E+00  0.1523E+02
     26.383  0.3293E+00  0.1527E+02
     26.515  0.3017E+00  0.1532E+02
     26.646  0.2839E+00  0.1535E+02
     26.777  0.2728E+00  0.1539E+02
     26.908  0.2446E+00  0.1542E+02
     27.039  0.2263E+00  0.1546E+02
     27.170  0.2182E+00  0.1548E+02
     27.301  0.2102E+00  0.1551E+02
     27.433  0.2012E+00  0.1554E+02
     27.564  0.1934E+00  0.1557E+02
     27.695  0.1870E+00  0.1559E+02
     27.826  0.1839E+00  0.1561E+02
     27.957  0.1805E+00  0.1564E+02
     28.088  0.1745E+00  0.1566E+02
     28.219  0.1656E+00  0.1568E+02
     28.350  0.1555E+00  0.1571E+02
     28.482  0.1494E+00  0.1573E+02
     28.613  0.1453E+00  0.1574E+02
     28.744  0.1411E+00  0.1576E+02
     28.875  0.1365E+00  0.1578E+02
     29.006  0.1330E+00  0.1580E+02
     29.137  0.1297E+00  0.1582E+02
     29.268  0.1239E+00  0.1583E+02
     29.400  0.1169E+00  0.1585E+02
     29.531  0.1099E+00  0.1586E+02
     29.662  0.1047E+00  0.1588E+02
     29.793  0.1062E+00  0.1589E+02
     29.924  0.9715E-01  0.1591E+02
     30.055  0.7732E-01  0.1592E+02
     30.186  0.7080E-01  0.1593E+02
     30.318  0.6491E-01  0.1594E+02
     30.449  0.5723E-01  0.1594E+02
     30.580  0.5045E-01  0.1595E+02
     30.711  0.4661E-01  0.1596E+02
     30.842  0.4304E-01  0.1596E+02
     30.973  0.3710E-01  0.1597E+02
     31.104  0.3354E-01  0.1597E+02
     31.236  0.3034E-01  0.1598E+02
     31.367  0.2747E-01  0.1598E+02
     31.498  0.2496E-01  0.1598E+02
     31.629  0.2345E-01  0.1599E+02
     31.760  0.2281E-01  0.1599E+02
     31.891  0.1600E-01  0.1599E+02
     32.022  0.1290E-01  0.1599E+02
     32.154  0.1059E-01  0.1600E+02
     32.285  0.8472E-02  0.1600E+02
     32.416  0.6534E-02  0.1600E+02
     32.547  0.4777E-02  0.1600E+02
     32.678  0.6880E-02  0.1600E+02
     32.809  0.0000E+00  0.1600E+02
     32.940  0.0000E+00  0.1600E+02
     33.072  0.0000E+00  0.1600E+02
     33.203  0.0000E+00  0.1600E+02
     33.334  0.0000E+00  0.1600E+02
     33.465  0.0000E+00  0.1600E+02
     33.596  0.0000E+00  0.1600E+02
     33.727  0.0000E+00  0.1600E+02
     33.858  0.0000E+00  0.1600E+02
     33.990  0.0000E+00  0.1600E+02
     34.121  0.0000E+00  0.1600E+02
     34.252  0.0000E+00  0.1600E+02
     34.383  0.0000E+00  0.1600E+02
     34.514  0.0000E+00  0.1600E+02
     34.645  0.0000E+00  0.1600E+02
     34.776  0.0000E+00  0.1600E+02
     34.77648834     -4.56629858  301     15.57916462      1.00000000
     -4.566  0.0000E+00  0.0000E+00  0.0000E+00  0.0000E+00  0.0000E+00  0.0000E+00  0.0000E+00  0.0000E+00  0.0000E+00
     -4.435  0.0000E+00  0.0000E+00  0.0000E+00  0.0000E+00  0.0000E+00  0.0000E+00  0.0000E+00  0.0000E+00  0.0000E+00
     -4.304  0.0000E+00  0.0000E+00  0.0000E+00  0.0000E+00  0.0000E+00  0.0000E+00  0.0000E+00  0.0000E+00  0.0000E+00
     -4.173  0.0000E+00  0.0000E+00  0.0000E+00  0.0000E+00  0.0000E+00  0.0000E+00  0.0000E+00  0.0000E+00  0.0000E+00
     -4.042  0.0000E+00  0.0000E+00  0.0000E+00  0.0000E+00  0.0000E+00  0.0000E+00  0.0000E+00  0.0000E+00  0.0000E+00
     -3.911  0.0000E+00  0.0000E+00  0.0000E+00  0.0000E+00  0.0000E+00  0.0000E+00  0.0000E+00  0.0000E+00  0.0000E+00
     -3.779  0.0000E+00  0.0000E+00  0.0000E+00  0.0000E+00  0.0000E+00  0.0000E+00  0.0000E+00  0.0000E+00  0.0000E+00
     -3.648  0.0000E+00  0.0000E+00  0.0000E+00  0.0000E+00  0.0000E+00  0.0000E+00  0.0000E+00  0.0000E+00  0.0000E+00
     -3.517  0.0000E+00  0.0000E+00  0.0000E+00  0.0000E+00  0.0000E+00  0.0000E+00  0.0000E+00  0.0000E+00  0.0000E+00
     -3.386  0.0000E+00  0.0000E+00  0.0000E+00  0.0000E+00  0.0000E+00  0.0000E+00  0.0000E+00  0.0000E+00  0.0000E+00
     -3.255  0.0000E+00  0.0000E+00  0.0000E+00  0.0000E+00  0.0000E+00  0.0000E+00  0.0000E+00  0.0000E+00  0.0000E+00
     -3.124  0.0000E+00  0.0000E+00  0.0000E+00  0.0000E+00  0.0000E+00  0.0000E+00  0.0000E+00  0.0000E+00  0.0000E+00
     -2.993  0.0000E+00  0.0000E+00  0.0000E+00  0.0000E+00  0.0000E+00  0.0000E+00  0.0000E+00  0.0000E+00  0.0000E+00
     -2.861  0.0000E+00  0.0000E+00  0.0000E+00  0.0000E+00  0.0000E+00  0.0000E+00  0.0000E+00  0.0000E+00  0.0000E+00
     -2.730  0.0000E+00  0.0000E+00  0.0000E+00  0.0000E+00  0.0000E+00  0.0000E+00  0.0000E+00  0.0000E+00  0.0000E+00
     -2.599  0.0000E+00  0.0000E+00  0.0000E+00  0.0000E+00  0.0000E+00  0.0000E+00  0.0000E+00  0.0000E+00  0.0000E+00
     -2.468  0.1026E-01  0.4203E-04  0.2109E-04  0.2109E-04  0.0000E+00  0.0000E+00  0.0000E+00  0.0000E+00  0.0000E+00
     -2.337  0.1694E-01  0.1597E-03  0.6545E-04  0.7716E-04  0.0000E+00  0.0000E+00  0.0000E+00  0.0000E+00  0.0000E+00
     -2.206  0.2201E-01  0.3369E-03  0.1094E-03  0.1367E-03  0.0000E+00  0.0000E+00  0.0000E+00  0.0000E+00  0.0000E+00
     -2.075  0.2534E-01  0.5473E-03  0.1573E-03  0.2271E-03  0.0000E+00  0.0000E+00  0.0000E+00  0.0000E+00  0.0000E+00
     -1.943  0.2866E-01  0.7637E-03  0.2468E-03  0.3102E-03  0.0000E+00  0.0000E+00  0.0000E+00  0.0000E+00  0.0000E+00
     -1.812  0.3111E-01  0.9928E-03  0.3421E-03  0.4268E-03  0.0000E+00  0.0000E+00  0.0000E+00  0.0000E+00  0.0000E+00
     -1.681  0.3401E-01  0.1256E-02  0.4293E-03  0.5210E-03  0.0000E+00  0.0000E+00  0.0000E+00  0.0000E+00  0.0000E+00
     -1.550  0.3572E-01  0.1460E-02  0.6293E-03  0.6489E-03  0.0000E+00  0.0000E+00  0.0000E+00  0.0000E+00  0.0000E+00
     -1.419  0.3775E-01  0.1780E-02  0.7047E-03  0.7812E-03  0.0000E+00  0.0000E+00  0.0000E+00  0.0000E+00  0.0000E+00
     -1.288  0.3993E-01  0.2101E-02  0.7958E-03  0.9051E-03  0.0000E+00  0.0000E+00  0.0000E+00  0.0000E+00  0.0000E+00
     -1.157  0.4128E-01  0.2393E-02  0.9755E-03  0.1050E-02  0.0000E+00  0.0000E+00  0.0000E+00  0.0000E+00  0.0000E+00
     -1.025  0.4274E-01  0.2726E-02  0.1112E-02  0.1198E-02  0.0000E+00  0.0000E+00  0.0000E+00  0.0000E+00  0.0000E+00
     -0.894  0.4441E-01  0.3118E-02  0.1184E-02  0.1349E-02  0.0000E+00  0.0000E+00  0.0000E+00  0.0000E+00  0.0000E+00
     -0.763  0.4576E-01  0.3496E-02  0.1306E-02  0.1510E-02  0.0000E+00  0.0000E+00  0.0000E+00  0.0000E+00  0.0000E+00
     -0.632  0.4682E-01  0.3791E-02  0.1544E-02  0.1675E-02  0.0000E+00  0.0000E+00  0.0000E+00  0.0000E+00  0.0000E+00
     -0.501  0.4797E-01  0.4118E-02  0.1754E-02  0.1840E-02  0.0000E+00  0.0000E+00  0.0000E+00  0.0000E+00  0.0000E+00
     -0.370  0.4929E-01  0.4537E-02  0.1867E-02  0.2004E-02  0.0000E+00  0.0000E+00  0.0000E+00  0.0000E+00  0.0000E+00
     -0.239  0.5030E-01  0.4954E-02  0.2005E-02  0.2196E-02  0.0000E+00  0.0000E+00  0.0000E+00  0.0000E+00  0.0000E+00
     -0.107  0.5111E-01  0.5269E-02  0.2279E-02  0.2391E-02  0.0000E+00  0.0000E+00  0.0000E+00  0.0000E+00  0.0000E+00
      0.024  0.5203E-01  0.5621E-02  0.2525E-02  0.2574E-02  0.0000E+00  0.0000E+00  0.0000E+00  0.0000E+00  0.0000E+00
      0.155  0.5299E-01  0.6028E-02  0.2719E-02  0.2756E-02  0.0000E+00  0.0000E+00  0.0000E+00  0.0000E+00  0.0000E+00
      0.286  0.5405E-01  0.6505E-02  0.2838E-02  0.2938E-02  0.0000E+00  0.0000E+00  0.0000E+00  0.0000E+00  0.0000E+00
      0.417  0.5460E-01  0.6976E-02  0.3002E-02  0.3170E-02  0.0000E+00  0.0000E+00  0.0000E+00  0.0000E+00  0.0000E+00
      0.548  0.5524E-01  0.7349E-02  0.3266E-02  0.3389E-02  0.0000E+00  0.0000E+00  0.0000E+00  0.0000E+00  0.0000E+00
      0.679  0.5594E-01  0.7782E-02  0.3478E-02  0.3593E-02  0.0000E+00  0.0000E+00  0.0000E+00  0.0000E+00  0.0000E+00
      0.811  0.5668E-01  0.8233E-02  0.3677E-02  0.3791E-02  0.0000E+00  0.0000E+00  0.0000E+00  0.0000E+00  0.0000E+00
      0.942  0.5746E-01  0.8713E-02  0.3850E-02  0.3988E-02  0.0000E+00  0.0000E+00  0.0000E+00  0.0000E+00  0.0000E+00
      1.073  0.5788E-01  0.9238E-02  0.4007E-02  0.4226E-02  0.0000E+00  0.0000E+00  0.0000E+00  0.0000E+00  0.0000E+00
      1.204  0.5831E-01  0.9685E-02  0.4238E-02  0.4471E-02  0.0000E+00  0.0000E+00  0.0000E+00  0.0000E+00  0.0000E+00
      1.335  0.5879E-01  0.1006E-01  0.4545E-02  0.4704E-02  0.0000E+00  0.0000E+00  0.0000E+00  0.0000E+00  0.0000E+00
      1.466  0.5932E-01  0.1052E-01  0.4771E-02  0.4924E-02  0.0000E+00  0.0000E+00  0.0000E+00  0.0000E+00  0.0000E+00
      1.597  0.5989E-01  0.1099E-01  0.4989E-02  0.5139E-02  0.0000E+00  0.0000E+00  0.0000E+00  0.0000E+00  0.0000E+00
      1.729  0.6032E-01  0.1146E-01  0.5230E-02  0.5368E-02  0.0000E+00  0.0000E+00  0.0000E+00  0.0000E+00  0.0000E+00
      1.860  0.6059E-01  0.1197E-01  0.5447E-02  0.5621E-02  0.0000E+00  0.0000E+00  0.0000E+00  0.0000E+00  0.0000E+00
      1.991  0.6089E-01  0.1240E-01  0.5735E-02  0.5878E-02  0.0000E+00  0.0000E+00  0.0000E+00  0.0000E+00  0.0000E+00
      2.122  0.6124E-01  0.1277E-01  0.6068E-02  0.6134E-02  0.0000E+00  0.0000E+00  0.0000E+00  0.0000E+00  0.0000E+00
      2.253  0.6161E-01  0.1323E-01  0.6331E-02  0.6377E-02  0.0000E+00  0.0000E+00  0.0000E+00  0.0000E+00  0.0000E+00
      2.384  0.6203E-01  0.1377E-01  0.6504E-02  0.6610E-02  0.0000E+00  0.0000E+00  0.0000E+00  0.0000E+00  0.0000E+00
      2.515  0.6244E-01  0.1430E-01  0.6749E-02  0.6880E-02  0.0000E+00  0.0000E+00  0.0000E+00  0.0000E+00  0.0000E+00
      2.647  0.6300E-01  0.1486E-01  0.7071E-02  0.7219E-02  0.0000E+00  0.0000E+00  0.0000E+00  0.0000E+00  0.0000E+00
      2.778  0.6461E-01  0.1555E-01  0.7594E-02  0.7723E-02  0.0000E+00  0.0000E+00  0.0000E+00  0.0000E+00  0.0000E+00
      2.909  0.6815E-01  0.1660E-01  0.8419E-02  0.8549E-02  0.0000E+00  0.0000E+00  0.0000E+00  0.0000E+00  0.0000E+00
      3.040  0.6454E-01  0.1631E-01  0.8112E-02  0.8125E-02  0.0000E+00  0.0000E+00  0.0000E+00  0.0000E+00  0.0000E+00
      3.171  0.6483E-01  0.1676E-01  0.8418E-02  0.8375E-02  0.0000E+00  0.0000E+00  0.0000E+00  0.0000E+00  0.0000E+00
      3.302  0.6168E-01  0.1675E-01  0.7863E-02  0.8005E-02  0.0000E+00  0.0000E+00  0.0000E+00  0.0000E+00  0.0000E+00
      3.433  0.5778E-01  0.1625E-01  0.7498E-02  0.7563E-02  0.0000E+00  0.0000E+00  0.0000E+00  0.0000E+00  0.0000E+00
      3.565  0.5899E-01  0.1678E-01  0.8102E-02  0.8068E-02  0.0000E+00  0.0000E+00  0.0000E+00  0.0000E+00  0.0000E+00
      3.696  0.6381E-01  0.1816E-01  0.9431E-02  0.9255E-02  0.0000E+00  0.0000E+00  0.0000E+00  0.0000E+00  0.0000E+00
      3.827  0.6302E-01  0.1829E-01  0.9540E-02  0.9365E-02  0.0000E+00  0.0000E+00  0.0000E+00  0.0000E+00  0.0000E+00
      3.958  0.6211E-01  0.1835E-01  0.9571E-02  0.9401E-02  0.0000E+00  0.0000E+00  0.0000E+00  0.0000E+00  0.0000E+00
      4.089  0.6695E-01  0.1940E-01  0.1111E-01  0.1061E-01  0.0000E+00  0.0000E+00  0.0000E+00  0.0000E+00  0.0000E+00
      4.220  0.6810E-01  0.1961E-01  0.1178E-01  0.1104E-01  0.0000E+00  0.0000E+00  0.0000E+00  0.0000E+00  0.0000E+00
      4.351  0.6637E-01  0.1944E-01  0.1145E-01  0.1085E-01  0.0000E+00  0.0000E+00  0.0000E+00  0.0000E+00  0.0000E+00
      4.483  0.6659E-01  0.1926E-01  0.1147E-01  0.1085E-01  0.0000E+00  0.0000E+00  0.0000E+00  0.0000E+00  0.0000E+00
      4.614  0.6975E-01  0.1966E-01  0.1211E-01  0.1153E-01  0.0000E+00  0.0000E+00  0.0000E+00  0.0000E+00  0.0000E+00
      4.745  0.7121E-01  0.1955E-01  0.1249E-01  0.1185E-01  0.0000E+00  0.0000E+00  0.0000E+00  0.0000E+00  0.0000E+00
      4.876  0.6938E-01  0.1875E-01  0.1279E-01  0.1210E-01  0.0000E+00  0.0000E+00  0.0000E+00  0.0000E+00  0.0000E+00
      5.007  0.6769E-01  0.1820E-01  0.1322E-01  0.1255E-01  0.0000E+00  0.0000E+00  0.0000E+00  0.0000E+00  0.0000E+00
      5.138  0.6697E-01  0.1775E-01  0.1374E-01  0.1309E-01  0.0000E+00  0.0000E+00  0.0000E+00  0.0000E+00  0.0000E+00
      5.269  0.6611E-01  0.1708E-01  0.1430E-01  0.1350E-01  0.0000E+00  0.0000E+00  0.0000E+00  0.0000E+00  0.0000E+00
      5.401  0.6405E-01  0.1824E-01  0.1514E-01  0.1400E-01  0.0000E+00  0.0000E+00  0.0000E+00  0.0000E+00  0.0000E+00
      5.532  0.6328E-01  0.2079E-01  0.1539E-01  0.1431E-01  0.0000E+00  0.0000E+00  0.0000E+00  0.0000E+00  0.0000E+00
      5.663  0.5740E-01  0.2215E-01  0.1469E-01  0.1359E-01  0.0000E+00  0.0000E+00  0.0000E+00  0.0000E+00  0.0000E+00
      5.794  0.5654E-01  0.2510E-01  0.1522E-01  0.1387E-01  0.0000E+00  0.0000E+00  0.0000E+00  0.0000E+00  0.0000E+00
      5.925  0.5898E-01  0.2781E-01  0.1603E-01  0.1470E-01  0.0000E+00  0.0000E+00  0.0000E+00  0.0000E+00  0.0000E+00
      6.056  0.6180E-01  0.3052E-01  0.1644E-01  0.1561E-01  0.0000E+00  0.0000E+00  0.0000E+00  0.0000E+00  0.0000E+00
      6.187  0.6205E-01  0.3359E-01  0.1747E-01  0.1645E-01  0.0000E+00  0.0000E+00  0.0000E+00  0.0000E+00  0.0000E+00
      6.319  0.5915E-01  0.3100E-01  0.1689E-01  0.1609E-01  0.0000E+00  0.0000E+00  0.0000E+00  0.0000E+00  0.0000E+00
      6.450  0.5875E-01  0.3015E-01  0.1732E-01  0.1648E-01  0.0000E+00  0.0000E+00  0.0000E+00  0.0000E+00  0.0000E+00
      6.581  0.5649E-01  0.2997E-01  0.1699E-01  0.1626E-01  0.0000E+00  0.0000E+00  0.0000E+00  0.0000E+00  0.0000E+00
      6.712  0.5775E-01  0.3174E-01  0.1738E-01  0.1698E-01  0.0000E+00  0.0000E+00  0.0000E+00  0.0000E+00  0.0000E+00
      6.843  0.5967E-01  0.3308E-01  0.1861E-01  0.1808E-01  0.0000E+00  0.0000E+00  0.0000E+00  0.0000E+00  0.0000E+00
      6.974  0.5373E-01  0.3153E-01  0.1834E-01  0.1700E-01  0.0000E+00  0.0000E+00  0.0000E+00  0.0000E+00  0.0000E+00
      7.105  0.5540E-01  0.3177E-01  0.1965E-01  0.1795E-01  0.0000E+00  0.0000E+00  0.0000E+00  0.0000E+00  0.0000E+00
      7.237  0.5403E-01  0.3399E-01  0.1925E-01  0.1800E-01  0.0000E+00  0.0000E+00  0.0000E+00  0.0000E+00  0.0000E+00
      7.368  0.5563E-01  0.3784E-01  0.2004E-01  0.1899E-01  0.0000E+00  0.0000E+00  0.0000E+00  0.0000E+00  0.0000E+00
      7.499  0.5455E-01  0.3733E-01  0.1990E-01  0.1922E-01  0.0000E+00  0.0000E+00  0.0000E+00  0.0000E+00  0.0000E+00
      7.630  0.5434E-01  0.3787E-01  0.2025E-01  0.1975E-01  0.0000E+00  0.0000E+00  0.0000E+00  0.0000E+00  0.0000E+00
      7.761  0.5429E-01  0.3749E-01  0.2184E-01  0.2029E-01  0.0000E+00  0.0000E+00  0.0000E+00  0.0000E+00  0.0000E+00
      7.892  0.5331E-01  0.3742E-01  0.2275E-01  0.2056E-01  0.0000E+00  0.0000E+00  0.0000E+00  0.0000E+00  0.0000E+00
      8.023  0.5031E-01  0.3596E-01  0.2378E-01  0.1990E-01  0.0000E+00  0.0000E+00  0.0000E+00  0.0000E+00  0.0000E+00
      8.155  0.5002E-01  0.3620E-01  0.2457E-01  0.2036E-01  0.0000E+00  0.0000E+00  0.0000E+00  0.0000E+00  0.0000E+00
      8.286  0.5013E-01  0.3702E-01  0.2652E-01  0.2089E-01  0.0000E+00  0.0000E+00  0.0000E+00  0.0000E+00  0.0000E+00
      8.417  0.5008E-01  0.3827E-01  0.2640E-01  0.2131E-01  0.0000E+00  0.0000E+00  0.0000E+00  0.0000E+00  0.0000E+00
      8.548  0.4977E-01  0.3758E-01  0.2736E-01  0.2227E-01  0.0000E+00  0.0000E+00  0.0000E+00  0.0000E+00  0.0000E+00
      8.679  0.5055E-01  0.3897E-01  0.2887E-01  0.2379E-01  0.0000E+00  0.0000E+00  0.0000E+00  0.0000E+00  0.0000E+00
      8.810  0.4951E-01  0.3845E-01  0.3017E-01  0.2406E-01  0.0000E+00  0.0000E+00  0.0000E+00  0.0000E+00  0.0000E+00
      8.941  0.4895E-01  0.3947E-01  0.3303E-01  0.2434E-01  0.0000E+00  0.0000E+00  0.0000E+00  0.0000E+00  0.0000E+00
      9.073  0.4785E-01  0.3971E-01  0.3164E-01  0.2445E-01  0.0000E+00  0.0000E+00  0.0000E+00  0.0000E+00  0.0000E+00
      9.204  0.4630E-01  0.3853E-01  0.3253E-01  0.2446E-01  0.0000E+00  0.0000E+00  0.0000E+00  0.0000E+00  0.0000E+00
      9.335  0.4487E-01  0.3837E-01  0.3358E-01  0.2445E-01  0.0000E+00  0.0000E+00  0.0000E+00  0.0000E+00  0.0000E+00
      9.466  0.4447E-01  0.3884E-01  0.3561E-01  0.2508E-01  0.0000E+00  0.0000E+00  0.0000E+00  0.0000E+00  0.0000E+00
      9.597  0.4589E-01  0.3901E-01  0.3699E-01  0.2836E-01  0.0000E+00  0.0000E+00  0.0000E+00  0.0000E+00  0.0000E+00
      9.728  0.4338E-01  0.3941E-01  0.3801E-01  0.2720E-01  0.0000E+00  0.0000E+00  0.0000E+00  0.0000E+00  0.0000E+00
      9.859  0.4393E-01  0.3843E-01  0.4265E-01  0.2943E-01  0.0000E+00  0.0000E+00  0.0000E+00  0.0000E+00  0.0000E+00
      9.991  0.4247E-01  0.3821E-01  0.4295E-01  0.2930E-01  0.0000E+00  0.0000E+00  0.0000E+00  0.0000E+00  0.0000E+00
     10.122  0.4232E-01  0.3825E-01  0.4534E-01  0.3098E-01  0.0000E+00  0.0000E+00  0.0000E+00  0.0000E+00  0.0000E+00
     10.253  0.4076E-01  0.3802E-01  0.4663E-01  0.3130E-01  0.0000E+00  0.0000E+00  0.0000E+00  0.0000E+00  0.0000E+00
     10.384  0.3925E-01  0.3814E-01  0.4826E-01  0.3157E-01  0.0000E+00  0.0000E+00  0.0000E+00  0.0000E+00  0.0000E+00
     10.515  0.3865E-01  0.3855E-01  0.5057E-01  0.3271E-01  0.0000E+00  0.0000E+00  0.0000E+00  0.0000E+00  0.0000E+00
     10.646  0.3842E-01  0.3776E-01  0.5438E-01  0.3691E-01  0.0000E+00  0.0000E+00  0.0000E+00  0.0000E+00  0.0000E+00
     10.777  0.3695E-01  0.3755E-01  0.6220E-01  0.3779E-01  0.0000E+00  0.0000E+00  0.0000E+00  0.0000E+00  0.0000E+00
     10.909  0.3557E-01  0.3751E-01  0.6386E-01  0.4032E-01  0.0000E+00  0.0000E+00  0.0000E+00  0.0000E+00  0.0000E+00
     11.040  0.3429E-01  0.3785E-01  0.6810E-01  0.4387E-01  0.0000E+00  0.0000E+00  0.0000E+00  0.0000E+00  0.0000E+00
     11.171  0.3378E-01  0.3845E-01  0.7981E-01  0.5512E-01  0.0000E+00  0.0000E+00  0.0000E+00  0.0000E+00  0.0000E+00
     11.302  0.3211E-01  0.3829E-01  0.7344E-01  0.4819E-01  0.0000E+00  0.0000E+00  0.0000E+00  0.0000E+00  0.0000E+00
     11.433  0.3040E-01  0.3738E-01  0.7239E-01  0.4830E-01  0.0000E+00  0.0000E+00  0.0000E+00  0.0000E+00  0.0000E+00
     11.564  0.2931E-01  0.3684E-01  0.7029E-01  0.4697E-01  0.0000E+00  0.0000E+00  0.0000E+00  0.0000E+00  0.0000E+00
     11.695  0.2812E-01  0.3648E-01  0.7019E-01  0.4697E-01  0.0000E+00  0.0000E+00  0.0000E+00  0.0000E+00  0.0000E+00
     11.827  0.2635E-01  0.3552E-01  0.6809E-01  0.4493E-01  0.0000E+00  0.0000E+00  0.0000E+00  0.0000E+00  0.0000E+00
     11.958  0.2480E-01  0.3501E-01  0.6621E-01  0.4320E-01  0.0000E+00  0.0000E+00  0.0000E+00  0.0000E+00  0.0000E+00
     12.089  0.2358E-01  0.3471E-01  0.6523E-01  0.4248E-01  0.0000E+00  0.0000E+00  0.0000E+00  0.0000E+00  0.0000E+00
     12.220  0.2219E-01  0.3413E-01  0.6405E-01  0.4153E-01  0.0000E+00  0.0000E+00  0.0000E+00  0.0000E+00  0.0000E+00
     12.351  0.2079E-01  0.3359E-01  0.6210E-01  0.3994E-01  0.0000E+00  0.0000E+00  0.0000E+00  0.0000E+00  0.0000E+00
     12.482  0.1971E-01  0.3325E-01  0.5991E-01  0.3898E-01  0.0000E+00  0.0000E+00  0.0000E+00  0.0000E+00  0.0000E+00
     12.613  0.1879E-01  0.3302E-01  0.5858E-01  0.3878E-01  0.0000E+00  0.0000E+00  0.0000E+00  0.0000E+00  0.0000E+00
     12.745  0.1763E-01  0.3260E-01  0.5819E-01  0.3878E-01  0.0000E+00  0.0000E+00  0.0000E+00  0.0000E+00  0.0000E+00
     12.876  0.1647E-01  0.3268E-01  0.5651E-01  0.3713E-01  0.0000E+00  0.0000E+00  0.0000E+00  0.0000E+00  0.0000E+00
     13.007  0.1528E-01  0.3237E-01  0.5440E-01  0.3508E-01  0.0000E+00  0.0000E+00  0.0000E+00  0.0000E+00  0.0000E+00
     13.138  0.1431E-01  0.3170E-01  0.5215E-01  0.3384E-01  0.0000E+00  0.0000E+00  0.0000E+00  0.0000E+00  0.0000E+00
     13.269  0.1348E-01  0.3089E-01  0.5045E-01  0.3306E-01  0.0000E+00  0.0000E+00  0.0000E+00  0.0000E+00  0.0000E+00
     13.400  0.1261E-01  0.2983E-01  0.4984E-01  0.3311E-01  0.0000E+00  0.0000E+00  0.0000E+00  0.0000E+00  0.0000E+00
     13.531  0.1393E-01  0.2906E-01  0.4865E-01  0.3220E-01  0.0000E+00  0.0000E+00  0.0000E+00  0.0000E+00  0.0000E+00
     13.663  0.1683E-01  0.2855E-01  0.4722E-01  0.3080E-01  0.0000E+00  0.0000E+00  0.0000E+00  0.0000E+00  0.0000E+00
     13.794  0.2024E-01  0.2814E-01  0.4582E-01  0.2970E-01  0.0000E+00  0.0000E+00  0.0000E+00  0.0000E+00  0.0000E+00
     13.925  0.2325E-01  0.2761E-01  0.4402E-01  0.2924E-01  0.0000E+00  0.0000E+00  0.0000E+00  0.0000E+00  0.0000E+00
     14.056  0.2656E-01  0.2728E-01  0.4200E-01  0.2934E-01  0.0000E+00  0.0000E+00  0.0000E+00  0.0000E+00  0.0000E+00
     14.187  0.2976E-01  0.2699E-01  0.4035E-01  0.3022E-01  0.0000E+00  0.0000E+00  0.0000E+00  0.0000E+00  0.0000E+00
     14.318  0.3238E-01  0.2679E-01  0.3871E-01  0.3072E-01  0.0000E+00  0.0000E+00  0.0000E+00  0.0000E+00  0.0000E+00
     14.449  0.3486E-01  0.2716E-01  0.3704E-01  0.3103E-01  0.0000E+00  0.0000E+00  0.0000E+00  0.0000E+00  0.0000E+00
     14.581  0.3689E-01  0.2749E-01  0.3542E-01  0.3099E-01  0.0000E+00  0.0000E+00  0.0000E+00  0.0000E+00  0.0000E+00
     14.712  0.3759E-01  0.2784E-01  0.3315E-01  0.3111E-01  0.0000E+00  0.0000E+00  0.0000E+00  0.0000E+00  0.0000E+00
     14.843  0.3892E-01  0.2831E-01  0.3073E-01  0.3102E-01  0.0000E+00  0.0000E+00  0.0000E+00  0.0000E+00  0.0000E+00
     14.974  0.4040E-01  0.2870E-01  0.2865E-01  0.3111E-01  0.0000E+00  0.0000E+00  0.0000E+00  0.0000E+00  0.0000E+00
     15.105  0.4083E-01  0.2886E-01  0.2731E-01  0.3213E-01  0.0000E+00  0.0000E+00  0.0000E+00  0.0000E+00  0.0000E+00
     15.236  0.4153E-01  0.2924E-01  0.2545E-01  0.3247E-01  0.0000E+00  0.0000E+00  0.0000E+00  0.0000E+00  0.0000E+00
     15.367  0.4256E-01  0.2981E-01  0.2389E-01  0.3297E-01  0.0000E+00  0.0000E+00  0.0000E+00  0.0000E+00  0.0000E+00
     15.499  0.4401E-01  0.3077E-01  0.2234E-01  0.3382E-01  0.0000E+00  0.0000E+00  0.0000E+00  0.0000E+00  0.0000E+00
     15.630  0.4391E-01  0.3145E-01  0.2046E-01  0.3512E-01  0.0000E+00  0.0000E+00  0.0000E+00  0.0000E+00  0.0000E+00
     15.761  0.4423E-01  0.3361E-01  0.1937E-01  0.3750E-01  0.0000E+00  0.0000E+00  0.0000E+00  0.0000E+00  0.0000E+00
     15.892  0.4497E-01  0.3673E-01  0.1932E-01  0.4105E-01  0.0000E+00  0.0000E+00  0.0000E+00  0.0000E+00  0.0000E+00